 Gaussian 16, Revision C.01,

 ---------------------------------------
 #p opt B3LYP/6-31G(d) geom=connectivity
 ---------------------------------------

 ---
 opt
 ---
 Symbolic Z-matrix:
 Charge =  0 Multiplicity = 1

 SCF Done:  E(RB3LYP) =  -76.4075853583     A.U. after    9 cycles
 SCF Done:  E(RB3LYP) =  -76.4089211065     A.U. after    9 cycles
 SCF Done:  E(RB3LYP) =  -76.4089534819     A.U. after    7 cycles
 SCF Done:  E(RB3LYP) =  -76.4089539793     A.U. after    6 cycles
 Optimization completed.
    -- Stationary point found.
 Normal termination of Gaussian 16 at Sun Apr 14 12:55:05 2024.

 ------------------------------------
 #p freq B3LYP/chkbasis geom=allcheck
 ------------------------------------

 Structure from the checkpoint file:  "water-freq.chk"
 ---
 opt
 ---
 Charge =  0 Multiplicity = 1

 SCF Done:  E(RB3LYP) =  -76.4089539793     A.U. after    9 cycles

  Exact polarizability:       2.830       0.000       7.395       0.000       0.000       5.423
 Approx polarizability:       3.082       0.000       8.971       0.000       0.000       6.755

                      1                      2                      3
                     A1                     A1                     B2
 Frequencies --   1713.0969              3727.1456              3849.0961
 Red. masses --      1.0825                 1.0453                 1.0810
 Frc consts  --      1.8717                 8.5557                 9.4362
 IR Inten    --     75.7861                 1.6918                19.3870

 - Thermochemistry -
 -------------------
 Temperature   298.150 Kelvin.  Pressure   1.00000 Atm.
 Atom     1 has atomic number  8 and mass  15.99491

 Molecular mass:    18.01056 amu.
 Principal axes and moments of inertia in atomic units:
                           1         2         3
     Eigenvalues --     2.29154   4.17461   6.46615
           X            0.00000   0.00000   1.00000
           Y            1.00000  -0.00000  -0.00000
           Z            0.00000   1.00000  -0.00000
 This molecule is an asymmetric top.
 Rotational symmetry number  2.
 Rotational temperatures (Kelvin)     37.79727    20.74777    13.39497
 Rotational constants (GHZ):         787.56719   432.31332   279.10585
 Zero-point vibrational energy      55562.6 (Joules/Mol)
                                   13.27978 (Kcal/Mol)
 Vibrational temperatures:   2464.76  5362.53  5537.99
          (Kelvin)

 Zero-point correction=                           0.021163 (Hartree/Particle)
 Thermal correction to Energy=                    0.023997
 Thermal correction to Enthalpy=                  0.024941
 Thermal correction to Gibbs Free Energy=         0.003495
 Sum of electronic and zero-point Energies=            -76.387791
 Sum of electronic and thermal Energies=               -76.384957
 Sum of electronic and thermal Enthalpies=             -76.384013
 Sum of electronic and thermal Free Energies=          -76.405459

                     E (Thermal)             CV                S
                      KCal/Mol        Cal/Mol-Kelvin    Cal/Mol-Kelvin
 Total                   15.058              5.997             45.137
 Electronic               0.000              0.000              0.000
 Translational            0.889              2.981             34.608
 Rotational               0.889              2.981             10.524
 Vibrational             13.281              0.035              0.005

 Optimization completed.
    -- Stationary point found.
 Normal termination of Gaussian 16 at Sun Apr 14 12:55:08 2024.
 Gaussian 16:  ES64L-G16RevC.01  3-Jul-2019

 -----------------------------------------------------
 #p td=(nstates=10,50-50) B3LYP/chkbasis geom=allcheck
 -----------------------------------------------------

 Structure from the checkpoint file:  "water-td.chk"
 ---
 opt
 ---
 Charge =  0 Multiplicity = 1

                         Standard orientation:
 ---------------------------------------------------------------------
 Center     Atomic      Atomic             Coordinates (Angstroms)
 Number     Number       Type             X           Y           Z
 ---------------------------------------------------------------------
      1          8           0       -0.000000    0.000000    0.119746
      2          1           0        0.000000    0.761556   -0.478983
      3          1           0       -0.000000   -0.761556   -0.478983
 ---------------------------------------------------------------------

 SCF Done:  E(RB3LYP) =  -76.4089539793     A.U. after    9 cycles

 Excitation energies and oscillator strengths:

 Excited State   1:      Triplet-B1     7.1428 eV  173.58 nm  f=0.0000  <S**2>=2.000
       5 ->  6         0.70642
 This state for optimization and/or second-order correction.
 Total Energy, E(TD-HF/TD-DFT) =  -76.1464610544
 Copying the excited state density for this state as the 1-particle RhoCI density.

 Excited State   2:      Singlet-B1     7.9161 eV  156.62 nm  f=0.0136  <S**2>=0.000
       5 ->  6         0.70715

 Excited State   3:      Triplet-A1     9.2689 eV  133.76 nm  f=0.0000  <S**2>=2.000
       4 ->  6         0.70388

 Excited State   4:      Triplet-A2     9.3675 eV  132.36 nm  f=0.0000  <S**2>=2.000
       5 ->  7         0.70600

 Excited State   5:      Singlet-A2     9.9398 eV  124.74 nm  f=0.0000  <S**2>=0.000
       5 ->  7         0.70672

 Excited State   6:      Singlet-A1    10.4993 eV  118.09 nm  f=0.0947  <S**2>=0.000
       4 ->  6         0.70164

 Excited State   7:      Triplet-B2    11.2607 eV  110.10 nm  f=0.0000  <S**2>=2.000
       3 ->  6         0.18498
       4 ->  7         0.68087

 Excited State   8:      Singlet-B2    12.6760 eV   97.81 nm  f=0.0717  <S**2>=0.000
       3 ->  6        -0.14083
       4 ->  7         0.69231

 Excited State   9:      Triplet-B2    13.0540 eV   94.98 nm  f=0.0000  <S**2>=2.000
       3 ->  6         0.68060
       4 ->  7        -0.18566

 Excited State  10:      Singlet-B2    14.5184 eV   85.40 nm  f=0.3976  <S**2>=0.000
       3 ->  6         0.69263
       4 ->  7         0.14035

 Excited State  11:      Triplet-A1    14.7212 eV   84.22 nm  f=0.0000  <S**2>=2.000
       3 ->  7         0.70069

 Excited State  12:      Singlet-A1    17.7792 eV   69.74 nm  f=0.2111  <S**2>=0.000
       3 ->  7         0.69194

 Excited State  13:      Triplet-A1    25.6308 eV   48.37 nm  f=0.0000  <S**2>=2.000
       2 ->  6         0.61942
       4 ->  9         0.11954
       5 -> 10        -0.29873

 Excited State  14:      Triplet-A2    26.1983 eV   47.33 nm  f=0.0000  <S**2>=2.000
       5 ->  8         0.70632

 Excited State  15:      Singlet-A2    26.5646 eV   46.67 nm  f=0.0000  <S**2>=0.000
       5 ->  8         0.70686

 Excited State  16:      Triplet-A1    27.0540 eV   45.83 nm  f=0.0000  <S**2>=2.000
       2 ->  6         0.31802
       4 -> 11         0.12031
       5 -> 10         0.61729

 Excited State  17:      Triplet-B1    27.5482 eV   45.01 nm  f=0.0000  <S**2>=2.000
       4 -> 10        -0.14582
       5 ->  9         0.64411
       5 -> 11        -0.25167

 Excited State  18:      Singlet-A1    27.6943 eV   44.77 nm  f=0.0309  <S**2>=0.000
       2 ->  6         0.67093
       5 -> 10         0.21197

 Excited State  19:      Singlet-B1    28.7592 eV   43.11 nm  f=0.1161  <S**2>=0.000
       5 ->  9         0.63449
       5 -> 11        -0.30873

 Excited State  20:      Singlet-B2    29.4824 eV   42.05 nm  f=0.1496  <S**2>=0.000
       2 ->  7         0.54922
       4 ->  8        -0.43638

 The electronic state is 1-A1.
 Alpha  occ. eigenvalues --  -19.13817  -0.99788  -0.51713  -0.37222  -0.29119
 Alpha virt. eigenvalues --    0.06260   0.14812   0.77245   0.86092   0.89078
 Alpha virt. eigenvalues --    0.89509   1.06578   1.19344   1.72910   1.74638
 Alpha virt. eigenvalues --    1.77981   2.28056   2.57709   3.55190

 Mulliken charges:
               1
     1  O   -0.774318
     2  H    0.387159
     3  H    0.387159
 Sum of Mulliken charges =   0.00000

 Dipole moment (field-independent basis, Debye):
    X=             -0.0000    Y=             -0.0000    Z=             -2.0954  Tot=              2.0954
 Quadrupole moment (field-independent basis, Debye-Ang):
   XX=             -7.2039   YY=             -4.2866   ZZ=             -5.9898
   XY=              0.0000   XZ=              0.0000   YZ=              0.0000

 Normal termination of Gaussian 16 at Sun Apr 14 12:55:09 2024.
