 Gaussian 16, Revision C.01,

 ---------------------------------------
 #p opt B3LYP/6-31G(d) geom=connectivity
 ---------------------------------------

 ---
 opt
 ---
 Symbolic Z-matrix:
 Charge =  0 Multiplicity = 1

 SCF Done:  E(RB3LYP) =  -155.030869984     A.U. after   12 cycles
 SCF Done:  E(RB3LYP) =  -155.033684145     A.U. after   11 cycles
 SCF Done:  E(RB3LYP) =  -155.033796437     A.U. after    9 cycles
 SCF Done:  E(RB3LYP) =  -155.033799161     A.U. after    7 cycles
 Optimization completed.
    -- Stationary point found.
 Normal termination of Gaussian 16 at Sun Apr 14 13:00:59 2024.

 ------------------------------------
 #p freq B3LYP/chkbasis geom=allcheck
 ------------------------------------

 Structure from the checkpoint file:  "ethanol-freq.chk"
 ---
 opt
 ---
 Charge =  0 Multiplicity = 1

 SCF Done:  E(RB3LYP) =  -155.033799161     A.U. after   12 cycles

  Exact polarizability:      29.453      -0.953      25.939      -0.000       0.000      23.787
 Approx polarizability:      35.436       0.515      33.754      -0.000      -0.000      31.004

                      1                      2                      3
                     A"                     A"                     A'
 Frequencies --    251.4575               301.8131               417.2578
 Red. masses --      1.1516                 1.0695                 2.6412
 Frc consts  --      0.0429                 0.0574                 0.2709
 IR Inten    --     32.5445                98.7922                11.2878

                      4                      5                      6
                     A"                     A'                     A'
 Frequencies --    829.8176               912.0799              1042.8793
 Red. masses --      1.0798                 2.2029                 2.1610
 Frc consts  --      0.4381                 1.0797                 1.3847
 IR Inten    --      0.0151                 9.8477                55.8716

                      7                      8                      9
                     A'                     A"                     A'
 Frequencies --   1125.2126              1195.0015              1291.8745
 Red. masses --      2.2491                 1.4983                 1.2493
 Frc consts  --      1.6778                 1.2606                 1.2284
 IR Inten    --     23.6079                 4.8651                86.9217

                     10                     11                     12
                     A"                     A'                     A'
 Frequencies --   1310.5601              1427.8169              1481.9942
 Red. masses --      1.1208                 1.2320                 1.4585
 Frc consts  --      1.1342                 1.4798                 1.8874
 IR Inten    --      0.0766                 0.4231                16.2675

                     13                     14                     15
                     A"                     A'                     A'
 Frequencies --   1513.9122              1531.7906              1561.3262
 Red. masses --      1.0410                 1.0456                 1.0906
 Frc consts  --      1.4057                 1.4455                 1.5663
 IR Inten    --      4.4183                 3.0812                 2.6941

                     16                     17                     18
                     A'                     A"                     A'
 Frequencies --   2981.5824              3004.8134              3057.3384
 Red. masses --      1.0551                 1.1083                 1.0351
 Frc consts  --      5.5265                 5.8960                 5.7005
 IR Inten    --     73.4966                77.9091                15.7324

                     19                     20                     21
                     A'                     A"                     A'
 Frequencies --   3127.9013              3133.4565              3750.6345
 Red. masses --      1.1024                 1.1037                 1.0663
 Frc consts  --      6.3546                 6.3846                 8.8380
 IR Inten    --     31.5487                34.3093                 9.7377

 - Thermochemistry -
 -------------------
 Temperature   298.150 Kelvin.  Pressure   1.00000 Atm.
 Atom     1 has atomic number  6 and mass  12.00000

 Molecular mass:    46.04186 amu.
 Principal axes and moments of inertia in atomic units:
                           1         2         3
     Eigenvalues --    51.59094 192.99836 221.92916
           X            0.99336   0.11503   0.00000
           Y           -0.11503   0.99336   0.00000
           Z           -0.00000  -0.00000   1.00000
 This molecule is an asymmetric top.
 Rotational symmetry number  1.
 Rotational temperatures (Kelvin)      1.67886     0.44878     0.39028
 Rotational constants (GHZ):          34.98175     9.35107     8.13206
 Zero-point vibrational energy     210844.9 (Joules/Mol)
                                   50.39315 (Kcal/Mol)
 Warning -- explicit consideration of   3 degrees of freedom as
           vibrations may cause significant error
 Vibrational temperatures:    361.79   434.24   600.34  1193.92  1312.28
          (Kelvin)           1500.47  1618.93  1719.34  1858.72  1885.60
                             2054.31  2132.26  2178.18  2203.91  2246.40
                             4289.83  4323.26  4398.83  4500.35  4508.34
                             5396.33

 Zero-point correction=                           0.080307 (Hartree/Particle)
 Thermal correction to Energy=                    0.084574
 Thermal correction to Enthalpy=                  0.085518
 Thermal correction to Gibbs Free Energy=         0.054939
 Sum of electronic and zero-point Energies=           -154.953493
 Sum of electronic and thermal Energies=              -154.949225
 Sum of electronic and thermal Enthalpies=            -154.948281
 Sum of electronic and thermal Free Energies=         -154.978861

                     E (Thermal)             CV                S
                      KCal/Mol        Cal/Mol-Kelvin    Cal/Mol-Kelvin
 Total                   53.071             13.382             64.360
 Electronic               0.000              0.000              0.000
 Translational            0.889              2.981             37.406
 Rotational               0.889              2.981             22.318
 Vibrational             51.294              7.420              4.637
 Vibration     1          0.663              1.760              1.720
 Vibration     2          0.694              1.670              1.407
 Vibration     3          0.780              1.433              0.901

 Optimization completed.
    -- Stationary point found.
 Normal termination of Gaussian 16 at Sun Apr 14 13:01:12 2024.
 Gaussian 16:  ES64L-G16RevC.01  3-Jul-2019

 -----------------------------------------------------
 #p td=(nstates=10,50-50) B3LYP/chkbasis geom=allcheck
 -----------------------------------------------------

 Structure from the checkpoint file:  "ethanol-td.chk"
 ---
 opt
 ---
 Charge =  0 Multiplicity = 1

                         Standard orientation:
 ---------------------------------------------------------------------
 Center     Atomic      Atomic             Coordinates (Angstroms)
 Number     Number       Type             X           Y           Z
 ---------------------------------------------------------------------
      1          6           0       -0.000000    0.555211   -0.000000
      2          6           0        1.172813   -0.411266    0.000000
      3          1           0        1.138494   -1.052604    0.886837
      4          1           0        1.138494   -1.052604   -0.886837
      5          1           0        2.123015    0.134559    0.000000
      6          8           0       -1.199084   -0.213742    0.000000
      7          1           0       -1.947767    0.401558   -0.000000
      8          1           0        0.051779    1.207680    0.887453
      9          1           0        0.051779    1.207680   -0.887453
 ---------------------------------------------------------------------

 SCF Done:  E(RB3LYP) =  -155.033799161     A.U. after   12 cycles

 Excitation energies and oscillator strengths:

 Excited State   1:      Triplet-A"     7.0739 eV  175.27 nm  f=0.0000  <S**2>=2.000
      13 -> 14         0.68858
      13 -> 15         0.13008
 This state for optimization and/or second-order correction.
 Total Energy, E(TD-HF/TD-DFT) =  -154.773837176
 Copying the excited state density for this state as the 1-particle RhoCI density.

 Excited State   2:      Singlet-A"     7.6607 eV  161.84 nm  f=0.0006  <S**2>=0.000
      13 -> 14         0.70051

 Excited State   3:      Triplet-A"     8.7439 eV  141.79 nm  f=0.0000  <S**2>=2.000
      13 -> 14        -0.13450
      13 -> 15         0.64458
      13 -> 17         0.20164

 Excited State   4:      Triplet-A'     8.8628 eV  139.89 nm  f=0.0000  <S**2>=2.000
       9 -> 14        -0.11169
      12 -> 14         0.67946
      12 -> 15         0.10103

 Excited State   5:      Singlet-A"     9.1986 eV  134.79 nm  f=0.0143  <S**2>=0.000
      13 -> 15         0.69878

 Excited State   6:      Triplet-A'     9.6308 eV  128.74 nm  f=0.0000  <S**2>=2.000
      12 -> 15        -0.14503
      13 -> 16         0.63670
      13 -> 19         0.19833

 Excited State   7:      Singlet-A'     9.6367 eV  128.66 nm  f=0.0096  <S**2>=0.000
      12 -> 14         0.70265

 Excited State   8:      Triplet-A"    10.0338 eV  123.57 nm  f=0.0000  <S**2>=2.000
      11 -> 14        -0.22057
      13 -> 15        -0.16566
      13 -> 17         0.52580
      13 -> 18        -0.21722
      13 -> 20         0.27226

 Excited State   9:      Triplet-A"    10.2685 eV  120.74 nm  f=0.0000  <S**2>=2.000
      13 -> 15         0.17188
      13 -> 17        -0.34951
      13 -> 18        -0.29089
      13 -> 20         0.48407

 Excited State  10:      Singlet-A'    10.3564 eV  119.72 nm  f=0.0672  <S**2>=0.000
      12 -> 15         0.12289
      13 -> 16         0.69016

 Excited State  11:      Triplet-A'    10.3790 eV  119.46 nm  f=0.0000  <S**2>=2.000
       9 -> 14        -0.17414
      12 -> 14        -0.13254
      12 -> 15         0.62121
      13 -> 16         0.17346

 Excited State  12:      Singlet-A"    10.4762 eV  118.35 nm  f=0.0615  <S**2>=0.000
      13 -> 17         0.68210
      13 -> 18        -0.13378

 Excited State  13:      Triplet-A"    10.6805 eV  116.08 nm  f=0.0000  <S**2>=2.000
      11 -> 14         0.63062
      11 -> 15        -0.14625
      13 -> 17         0.15246
      13 -> 18        -0.14726
      13 -> 20         0.13559

 Excited State  14:      Singlet-A"    10.6841 eV  116.05 nm  f=0.0012  <S**2>=0.000
      11 -> 14         0.43423
      13 -> 17         0.15857
      13 -> 18         0.45507
      13 -> 20        -0.26852

 Excited State  15:      Triplet-A'    10.7621 eV  115.20 nm  f=0.0000  <S**2>=2.000
       9 -> 14        -0.17265
      10 -> 14         0.62432
      10 -> 15        -0.11302
      10 -> 18         0.16912

 Excited State  16:      Singlet-A"    10.8537 eV  114.23 nm  f=0.0029  <S**2>=0.000
      11 -> 14         0.54169
      13 -> 18        -0.42862
      13 -> 20         0.12073

 Excited State  17:      Triplet-A"    10.9218 eV  113.52 nm  f=0.0000  <S**2>=2.000
      11 -> 15         0.23652
      11 -> 18         0.10533
      13 -> 18         0.52650
      13 -> 20         0.34691

 Excited State  18:      Singlet-A'    11.0087 eV  112.62 nm  f=0.0175  <S**2>=0.000
      12 -> 15         0.64002
      13 -> 16        -0.12663
      13 -> 19         0.24477

 Excited State  19:      Singlet-A"    11.1673 eV  111.02 nm  f=0.0024  <S**2>=0.000
      13 -> 18         0.29816
      13 -> 20         0.62817

 Excited State  20:      Singlet-A'    11.3776 eV  108.97 nm  f=0.0698  <S**2>=0.000
       9 -> 14        -0.39147
      10 -> 14         0.56965

 The electronic state is 1-A'.
 Alpha  occ. eigenvalues --  -19.13709 -10.22826 -10.17170  -1.00887  -0.74322
 Alpha  occ. eigenvalues --   -0.60562  -0.51041  -0.45899  -0.39458  -0.37884
 Alpha  occ. eigenvalues --   -0.36059  -0.32521  -0.26153
 Alpha virt. eigenvalues --    0.07659   0.11920   0.15743   0.16220   0.17560
 Alpha virt. eigenvalues --    0.19930   0.21414   0.24007   0.52869   0.55882
 Alpha virt. eigenvalues --    0.56221   0.58415   0.66999   0.68388   0.80847

 Mulliken charges:
               1
     1  C   -0.025725
     2  C   -0.441656
     3  H    0.157820
     4  H    0.157820
     5  H    0.139672
     6  O   -0.613080
     7  H    0.389452
     8  H    0.117849
     9  H    0.117849
 Sum of Mulliken charges =  -0.00000

 Dipole moment (field-independent basis, Debye):
    X=             -0.0187    Y=              1.5613    Z=             -0.0000  Tot=              1.5614
 Quadrupole moment (field-independent basis, Debye-Ang):
   XX=            -17.3405   YY=            -19.7164   ZZ=            -19.9415
   XY=             -2.4092   XZ=             -0.0000   YZ=              0.0000

 Normal termination of Gaussian 16 at Sun Apr 14 13:01:45 2024.
