 Gaussian 16, Revision C.01,

 ---------------------------------------
 #p opt B3LYP/6-31G(d) geom=connectivity
 ---------------------------------------

 ---
 opt
 ---
 Symbolic Z-matrix:
 Charge =  0 Multiplicity = 1

 SCF Done:  E(RB3LYP) =  -248.260620676     A.U. after   12 cycles
 SCF Done:  E(RB3LYP) =  -248.284436387     A.U. after   12 cycles
 SCF Done:  E(RB3LYP) =  -248.284920394     A.U. after   11 cycles
 SCF Done:  E(RB3LYP) =  -248.284957670     A.U. after    9 cycles
 SCF Done:  E(RB3LYP) =  -248.284960836     A.U. after    8 cycles
 Optimization completed.
    -- Stationary point found.
 Normal termination of Gaussian 16 at Sun Apr 14 13:03:54 2024.

 ------------------------------------
 #p freq B3LYP/chkbasis geom=allcheck
 ------------------------------------

 Structure from the checkpoint file:  "pyridine-freq.chk"
 ---
 opt
 ---
 Charge =  0 Multiplicity = 1

 SCF Done:  E(RB3LYP) =  -248.284960836     A.U. after   13 cycles

  Exact polarizability:      20.716      -0.000      68.401      -0.000       0.000      62.274
 Approx polarizability:      30.914       0.000     113.034      -0.000       0.000     109.046

                      1                      2                      3
                     A2                     B1                     A1
 Frequencies --    386.7438               421.3179               613.3668
 Red. masses --      2.5763                 3.8051                 7.1553
 Frc consts  --      0.2270                 0.3980                 1.5861
 IR Inten    --      0.0000                 3.3865                 4.2162

                      4                      5                      6
                     B2                     B1                     B1
 Frequencies --    670.3257               719.0794               763.2511
 Red. masses --      6.3485                 1.4439                 2.2083
 Frc consts  --      1.6807                 0.4399                 0.7580
 IR Inten    --      0.3306                43.7580                 7.5039

                      7                      8                      9
                     A2                     B1                     A2
 Frequencies --    898.2707               957.0516               994.0097
 Red. masses --      1.2475                 1.3225                 1.4635
 Frc consts  --      0.5930                 0.7137                 0.8520
 IR Inten    --      0.0000                 0.0223                 0.0000

                     10                     11                     12
                     B1                     A1                     A1
 Frequencies --   1010.0396              1011.8612              1050.9425
 Red. masses --      1.2758                 7.1306                 4.9164
 Frc consts  --      0.7668                 4.3015                 3.1993
 IR Inten    --      0.0000                 7.4106                 4.3254

                     13                     14                     15
                     B2                     A1                     B2
 Frequencies --   1085.9870              1100.7192              1181.2861
 Red. masses --      1.7792                 1.6937                 1.1302
 Frc consts  --      1.2363                 1.2090                 0.9292
 IR Inten    --      0.2694                 3.1983                 1.7254

                     16                     17                     18
                     A1                     B2                     B2
 Frequencies --   1253.3329              1308.4413              1398.1862
 Red. masses --      1.2866                 7.5606                 1.1997
 Frc consts  --      1.1908                 7.6263                 1.3818
 IR Inten    --      2.8497                 0.1295                 0.0299

                     19                     20                     21
                     B2                     A1                     B2
 Frequencies --   1487.1775              1531.1503              1638.3655
 Red. masses --      2.0880                 1.9460                 5.4646
 Frc consts  --      2.7209                 2.6880                 8.6424
 IR Inten    --     25.9008                 3.0322                 8.6543

                     22                     23                     24
                     A1                     B2                     A1
 Frequencies --   1643.5327              3168.6610              3170.8473
 Red. masses --      5.0184                 1.0873                 1.0900
 Frc consts  --      7.9868                 6.4323                 6.4572
 IR Inten    --     22.9673                32.9464                11.4016

                     25                     26                     27
                     A1                     B2                     A1
 Frequencies --   3190.6406              3206.4593              3214.5858
 Red. masses --      1.0889                 1.0934                 1.0987
 Frc consts  --      6.5310                 6.6232                 6.6895
 IR Inten    --      8.8937                34.3087                 8.2643

 - Thermochemistry -
 -------------------
 Temperature   298.150 Kelvin.  Pressure   1.00000 Atm.
 Atom     1 has atomic number  6 and mass  12.00000

 Molecular mass:    79.04220 amu.
 Principal axes and moments of inertia in atomic units:
                           1         2         3
     Eigenvalues --   298.99918 310.95031 609.94949
           X            0.00000   0.00000   1.00000
           Y            0.00000   1.00000  -0.00000
           Z            1.00000   0.00000   0.00000
 This molecule is an asymmetric top.
 Rotational symmetry number  2.
 Rotational temperatures (Kelvin)      0.28968     0.27855     0.14200
 Rotational constants (GHZ):           6.03594     5.80395     2.95884
 Zero-point vibrational energy     233724.2 (Joules/Mol)
                                   55.86142 (Kcal/Mol)
 Warning -- explicit consideration of   3 degrees of freedom as
           vibrations may cause significant error
 Vibrational temperatures:    556.44   606.18   882.50   964.45  1034.59
          (Kelvin)           1098.15  1292.41  1376.98  1430.16  1453.22
                             1455.84  1512.07  1562.49  1583.69  1699.61
                             1803.27  1882.56  2011.68  2139.72  2202.98
                             2357.24  2364.68  4559.00  4562.14  4590.62
                             4613.38  4625.07

 Zero-point correction=                           0.089021 (Hartree/Particle)
 Thermal correction to Energy=                    0.093290
 Thermal correction to Enthalpy=                  0.094234
 Thermal correction to Gibbs Free Energy=         0.062275
 Sum of electronic and zero-point Energies=           -248.195940
 Sum of electronic and thermal Energies=              -248.191671
 Sum of electronic and thermal Enthalpies=            -248.190726
 Sum of electronic and thermal Free Energies=         -248.222686

                     E (Thermal)             CV                S
                      KCal/Mol        Cal/Mol-Kelvin    Cal/Mol-Kelvin
 Total                   58.541             16.098             67.265
 Electronic               0.000              0.000              0.000
 Translational            0.889              2.981             39.017
 Rotational               0.889              2.981             24.165
 Vibrational             56.763             10.136              4.083
 Vibration     1          0.755              1.498              1.013
 Vibration     2          0.784              1.424              0.888
 Vibration     3          0.973              1.004              0.427

 Optimization completed.
    -- Stationary point found.
 Normal termination of Gaussian 16 at Sun Apr 14 13:04:28 2024.
 Gaussian 16:  ES64L-G16RevC.01  3-Jul-2019

 -----------------------------------------------------
 #p td=(nstates=10,50-50) B3LYP/chkbasis geom=allcheck
 -----------------------------------------------------

 Structure from the checkpoint file:  "pyridine-td.chk"
 ---
 opt
 ---
 Charge =  0 Multiplicity = 1

                         Standard orientation:
 ---------------------------------------------------------------------
 Center     Atomic      Atomic             Coordinates (Angstroms)
 Number     Number       Type             X           Y           Z
 ---------------------------------------------------------------------
      1          6           0       -0.000000    1.142149    0.722025
      2          7           0       -0.000000    0.000000    1.421057
      3          6           0       -0.000000   -1.142149    0.722025
      4          6           0        0.000000   -1.198635   -0.673106
      5          6           0        0.000000   -0.000000   -1.385692
      6          6           0        0.000000    1.198635   -0.673106
      7          1           0        0.000000    2.157962   -1.182449
      8          1           0        0.000000   -0.000000   -2.472612
      9          1           0       -0.000000   -2.157962   -1.182449
     10          1           0       -0.000000   -2.059842    1.308613
     11          1           0        0.000000    2.059842    1.308613
 ---------------------------------------------------------------------

 SCF Done:  E(RB3LYP) =  -248.284960836     A.U. after   13 cycles

 Excitation energies and oscillator strengths:

 Excited State   1:      Triplet-A1     3.9253 eV  315.86 nm  f=0.0000  <S**2>=2.000
      17 -> 26        -0.11068
      19 -> 22         0.43268
      20 -> 23         0.56358
      20 <- 23         0.10004
 This state for optimization and/or second-order correction.
 Total Energy, E(TD-HF/TD-DFT) =  -248.140707285
 Copying the excited state density for this state as the 1-particle RhoCI density.

 Excited State   2:      Triplet-B1     4.1400 eV  299.48 nm  f=0.0000  <S**2>=2.000
      21 -> 22         0.69845
      21 -> 26         0.10572

 Excited State   3:      Triplet-B2     4.6047 eV  269.26 nm  f=0.0000  <S**2>=2.000
      19 -> 23         0.12370
      20 -> 22         0.69687

 Excited State   4:      Singlet-B1     4.9134 eV  252.34 nm  f=0.0043  <S**2>=0.000
      21 -> 22         0.70602

 Excited State   5:      Triplet-A1     4.9391 eV  251.03 nm  f=0.0000  <S**2>=2.000
      19 -> 22         0.56134
      20 -> 23        -0.43115

 Excited State   6:      Triplet-A2     5.0528 eV  245.38 nm  f=0.0000  <S**2>=2.000
      21 -> 23         0.70613

 Excited State   7:      Singlet-A2     5.1933 eV  238.74 nm  f=0.0000  <S**2>=0.000
      21 -> 23         0.70661

 Excited State   8:      Singlet-B2     5.6382 eV  219.90 nm  f=0.0277  <S**2>=0.000
      19 -> 23        -0.36973
      20 -> 22         0.60198

 Excited State   9:      Triplet-B2     5.7215 eV  216.70 nm  f=0.0000  <S**2>=2.000
      19 -> 23         0.69475
      20 -> 22        -0.12260

 Excited State  10:      Singlet-A1     6.4953 eV  190.88 nm  f=0.0156  <S**2>=0.000
      19 -> 22         0.42112
      20 -> 23         0.56472

 Excited State  11:      Singlet-B2     7.5603 eV  163.99 nm  f=0.4355  <S**2>=0.000
      19 -> 23         0.59625
      20 -> 22         0.36433

 Excited State  12:      Triplet-A2     7.5658 eV  163.87 nm  f=0.0000  <S**2>=2.000
      18 -> 22         0.70269

 Excited State  13:      Triplet-A1     7.5835 eV  163.49 nm  f=0.0000  <S**2>=2.000
      17 -> 22         0.64801
      19 -> 26        -0.28013

 Excited State  14:      Singlet-A1     7.6119 eV  162.88 nm  f=0.4549  <S**2>=0.000
      19 -> 22         0.55475
      20 -> 23        -0.41708

 Excited State  15:      Singlet-A2     7.8451 eV  158.04 nm  f=0.0000  <S**2>=0.000
      18 -> 22         0.70497

 Excited State  16:      Triplet-B2     7.8612 eV  157.72 nm  f=0.0000  <S**2>=2.000
      17 -> 23         0.57451
      20 -> 26        -0.40816

 Excited State  17:      Triplet-B1     7.9147 eV  156.65 nm  f=0.0000  <S**2>=2.000
      18 -> 23         0.70153

 Excited State  18:      Singlet-B1     8.2600 eV  150.10 nm  f=0.0050  <S**2>=0.000
      18 -> 23         0.70491

 Excited State  19:      Singlet-A2     8.5169 eV  145.57 nm  f=0.0000  <S**2>=0.000
      20 -> 24         0.70421

 Excited State  20:      Singlet-A1     8.5383 eV  145.21 nm  f=0.0146  <S**2>=0.000
      17 -> 22        -0.13872
      21 -> 24         0.68450

 The electronic state is 1-A1.
 Alpha  occ. eigenvalues --  -14.32857 -10.22217 -10.22216 -10.21021 -10.20015
 Alpha  occ. eigenvalues --  -10.20014  -0.93786  -0.80271  -0.75964  -0.62816
 Alpha  occ. eigenvalues --   -0.62675  -0.52768  -0.47666  -0.47152  -0.42854
 Alpha  occ. eigenvalues --   -0.40348  -0.39442  -0.36389  -0.28592  -0.26138
 Alpha  occ. eigenvalues --   -0.25259
 Alpha virt. eigenvalues --   -0.02245  -0.00946   0.09288   0.13761   0.14681
 Alpha virt. eigenvalues --    0.15441   0.17521   0.17653   0.24108   0.29477
 Alpha virt. eigenvalues --    0.32026   0.32096   0.45378   0.45954   0.51546

 Mulliken charges:
               1
     1  C    0.038821
     2  N   -0.405723
     3  C    0.038821
     4  C   -0.136485
     5  C   -0.104231
     6  C   -0.136485
     7  H    0.138260
     8  H    0.144352
     9  H    0.138260
    10  H    0.142205
    11  H    0.142205
 Sum of Mulliken charges =   0.00000

 Dipole moment (field-independent basis, Debye):
    X=             -0.0000    Y=             -0.0000    Z=             -2.1921  Tot=              2.1921
 Quadrupole moment (field-independent basis, Debye-Ang):
   XX=            -36.8585   YY=            -29.1202   ZZ=            -35.7253
   XY=              0.0000   XZ=              0.0000   YZ=              0.0000

 Normal termination of Gaussian 16 at Sun Apr 14 13:06:09 2024.
