 Gaussian 16, Revision C.01,

 ---------------------------------------
 #p opt B3LYP/6-31G(d) geom=connectivity
 ---------------------------------------

 ---
 opt
 ---
 Symbolic Z-matrix:
 Charge =  0 Multiplicity = 1

 SCF Done:  E(RB3LYP) =  -232.229941212     A.U. after    9 cycles
 SCF Done:  E(RB3LYP) =  -232.248605372     A.U. after    9 cycles
 SCF Done:  E(RB3LYP) =  -232.248647859     A.U. after    6 cycles
 Optimization completed.
    -- Stationary point found.
 Normal termination of Gaussian 16 at Sun Apr 14 12:57:51 2024.

 ------------------------------------
 #p freq B3LYP/chkbasis geom=allcheck
 ------------------------------------

 Structure from the checkpoint file:  "benzene-freq.chk"
 ---
 opt
 ---
 Charge =  0 Multiplicity = 1

 SCF Done:  E(RB3LYP) =  -232.248647859     A.U. after    9 cycles

  Exact polarizability:      71.271      -0.000      71.272       0.000       0.000      20.961
 Approx polarizability:     118.395       0.000     118.395       0.000       0.000      31.036

                      1                      2                      3
                     E2U                    E2U                    E2G
 Frequencies --    414.7691               414.7702               621.6923
 Red. masses --      2.9539                 2.9539                 6.0782
 Frc consts  --      0.2994                 0.2994                 1.3841
 IR Inten    --      0.0000                 0.0000                 0.0000

                      4                      5                      6
                     E2G                    A2U                    B2G
 Frequencies --    621.6923               692.3171               717.7415
 Red. masses --      6.0782                 1.0848                 3.9049
 Frc consts  --      1.3841                 0.3063                 1.1852
 IR Inten    --      0.0000                77.5859                 0.0000

                      7                      8                      9
                     E1G                    E1G                    E2U
 Frequencies --    863.0539               863.0560               967.9375
 Red. masses --      1.2476                 1.2476                 1.3568
 Frc consts  --      0.5475                 0.5475                 0.7490
 IR Inten    --      0.0000                 0.0000                 0.0000

                     10                     11                     12
                     E2U                    B2G                    B1U
 Frequencies --    967.9387              1009.6538              1019.9096
 Red. masses --      1.3568                 1.2203                 6.5538
 Frc consts  --      0.7490                 0.7329                 4.0167
 IR Inten    --      0.0000                 0.0000                 0.0000

                     13                     14                     15
                     A1G                    E1U                    E1U
 Frequencies --   1020.4008              1068.5886              1068.5896
 Red. masses --      6.0335                 1.6996                 1.6996
 Frc consts  --      3.7013                 1.1435                 1.1435
 IR Inten    --      0.0000                 3.2814                 3.2809

                     16                     17                     18
                     B2U                    E2G                    E2G
 Frequencies --   1184.8933              1207.2163              1207.2165
 Red. masses --      1.0794                 1.1372                 1.1372
 Frc consts  --      0.8929                 0.9764                 0.9764
 IR Inten    --      0.0000                 0.0000                 0.0000

                     19                     20                     21
                     B2U                    A2G                    E1U
 Frequencies --   1356.0509              1386.4461              1530.8967
 Red. masses --      6.7060                 1.2476                 2.0174
 Frc consts  --      7.2655                 1.4130                 2.7858
 IR Inten    --      0.0000                 0.0000                 6.5372

                     22                     23                     24
                     E1U                    E2G                    E2G
 Frequencies --   1530.8970              1655.6374              1655.6375
 Red. masses --      2.0174                 5.3283                 5.3283
 Frc consts  --      2.7858                 8.6054                 8.6054
 IR Inten    --      6.5392                 0.0000                 0.0000

                     25                     26                     27
                     B1U                    E2G                    E2G
 Frequencies --   3177.8202              3187.4445              3187.4445
 Red. masses --      1.0834                 1.0875                 1.0875
 Frc consts  --      6.4463                 6.5097                 6.5097
 IR Inten    --      0.0000                 0.0000                 0.0000

                     28                     29                     30
                     E1U                    E1U                    A1G
 Frequencies --   3203.1941              3203.1955              3213.8340
 Red. masses --      1.0949                 1.0949                 1.0991
 Frc consts  --      6.6189                 6.6189                 6.6886
 IR Inten    --     51.8051                51.7983                 0.0000

 - Thermochemistry -
 -------------------
 Temperature   298.150 Kelvin.  Pressure   1.00000 Atm.
 Atom     1 has atomic number  6 and mass  12.00000

 Molecular mass:    78.04695 amu.
 Principal axes and moments of inertia in atomic units:
                           1         2         3
     Eigenvalues --   317.36113 317.36113 634.72227
           X           -0.50000   0.86603   0.00000
           Y            0.86603   0.50000   0.00000
           Z           -0.00000  -0.00000   1.00000
 This molecule is an oblate symmetric top.
 Rotational symmetry number 12.
 Rotational temperatures (Kelvin)      0.27292     0.27292     0.13646
 Rotational constants (GHZ):           5.68671     5.68671     2.84336
 Zero-point vibrational energy     264494.0 (Joules/Mol)
                                   63.21557 (Kcal/Mol)
 Warning -- explicit consideration of   2 degrees of freedom as
           vibrations may cause significant error
 Vibrational temperatures:    596.76   596.76   894.48   894.48   996.09
          (Kelvin)           1032.67  1241.74  1241.75  1392.65  1392.65
                             1452.67  1467.42  1468.13  1537.46  1537.46
                             1704.80  1736.91  1736.92  1951.05  1994.79
                             2202.62  2202.62  2382.09  2382.09  4572.17
                             4586.02  4586.02  4608.68  4608.68  4623.99

 Zero-point correction=                           0.100740 (Hartree/Particle)
 Thermal correction to Energy=                    0.105130
 Thermal correction to Enthalpy=                  0.106074
 Thermal correction to Gibbs Free Energy=         0.075624
 Sum of electronic and zero-point Energies=           -232.147907
 Sum of electronic and thermal Energies=              -232.143518
 Sum of electronic and thermal Enthalpies=            -232.142573
 Sum of electronic and thermal Free Energies=         -232.173024

                     E (Thermal)             CV                S
                      KCal/Mol        Cal/Mol-Kelvin    Cal/Mol-Kelvin
 Total                   65.970             17.146             64.089
 Electronic               0.000              0.000              0.000
 Translational            0.889              2.981             38.979
 Rotational               0.889              2.981             20.723
 Vibrational             64.193             11.184              4.387
 Vibration     1          0.778              1.438              0.910
 Vibration     2          0.778              1.438              0.910

 Optimization completed.
    -- Stationary point found.
 Normal termination of Gaussian 16 at Sun Apr 14 12:58:10 2024.
 Gaussian 16:  ES64L-G16RevC.01  3-Jul-2019

 -----------------------------------------------------
 #p td=(nstates=10,50-50) B3LYP/chkbasis geom=allcheck
 -----------------------------------------------------

 Structure from the checkpoint file:  "benzene-td.chk"
 ---
 opt
 ---
 Charge =  0 Multiplicity = 1

                         Standard orientation:
 ---------------------------------------------------------------------
 Center     Atomic      Atomic             Coordinates (Angstroms)
 Number     Number       Type             X           Y           Z
 ---------------------------------------------------------------------
      1          6           0        0.000000    1.396670   -0.000000
      2          6           0        1.209552    0.698335   -0.000000
      3          6           0        1.209552   -0.698335   -0.000000
      4          6           0       -0.000000   -1.396670   -0.000000
      5          6           0       -1.209552   -0.698335   -0.000000
      6          6           0       -1.209552    0.698335   -0.000000
      7          1           0       -2.150620    1.241661   -0.000000
      8          1           0       -2.150620   -1.241661   -0.000000
      9          1           0       -0.000000   -2.483322   -0.000000
     10          1           0        2.150620   -1.241661   -0.000000
     11          1           0        2.150620    1.241661    0.000000
     12          1           0        0.000000    2.483322   -0.000000
 ---------------------------------------------------------------------

 SCF Done:  E(RB3LYP) =  -232.248647859     A.U. after    9 cycles

 Excitation energies and oscillator strengths:

 Excited state symmetry could not be determined.
 Excited State   1:      Triplet-?Sym    3.7978 eV  326.46 nm  f=0.0000  <S**2>=2.000
      17 -> 27        -0.11395
      20 -> 23        -0.50316
      21 -> 22         0.50316
 This state for optimization and/or second-order correction.
 Total Energy, E(TD-HF/TD-DFT) =  -232.109080469
 Copying the excited state density for this state as the 1-particle RhoCI density.

 Excited state symmetry could not be determined.
 Excited State   2:      Triplet-?Sym    4.7896 eV  258.86 nm  f=0.0000  <S**2>=2.000
      20 -> 23         0.50047
      21 -> 22         0.50047

 Excited state symmetry could not be determined.
 Excited State   3:      Triplet-?Sym    4.7897 eV  258.86 nm  f=0.0000  <S**2>=2.000
      20 -> 22        -0.50047
      21 -> 23         0.50047

 Excited state symmetry could not be determined.
 Excited State   4:      Triplet-?Sym    5.2057 eV  238.17 nm  f=0.0000  <S**2>=2.000
      20 -> 22         0.50049
      21 -> 23         0.50049

 Excited state symmetry could not be determined.
 Excited State   5:      Singlet-?Sym    5.5430 eV  223.68 nm  f=0.0000  <S**2>=0.000
      20 -> 22         0.49980
      21 -> 23         0.49980

 Excited state symmetry could not be determined.
 Excited State   6:      Singlet-?Sym    6.3061 eV  196.61 nm  f=0.0000  <S**2>=0.000
      20 -> 23        -0.49833
      21 -> 22         0.49833

 Excited State   7:      Triplet-E2G    7.4267 eV  166.94 nm  f=0.0000  <S**2>=2.000
      17 -> 22         0.63131
      21 -> 27        -0.31858

 Excited State   8:      Triplet-E2G    7.4267 eV  166.94 nm  f=0.0000  <S**2>=2.000
      17 -> 23         0.63131
      20 -> 27         0.31858

 Excited state symmetry could not be determined.
 Excited State   9:      Triplet-?Sym    7.6353 eV  162.38 nm  f=0.0000  <S**2>=2.000
      18 -> 23         0.49814
      19 -> 22         0.49814

 Excited state symmetry could not be determined.
 Excited State  10:      Triplet-?Sym    7.6675 eV  161.70 nm  f=0.0000  <S**2>=2.000
      18 -> 22         0.49719
      19 -> 23         0.49718

 Excited state symmetry could not be determined.
 Excited State  11:      Triplet-?Sym    7.6675 eV  161.70 nm  f=0.0000  <S**2>=2.000
      18 -> 23        -0.49718
      19 -> 22         0.49718

 Excited state symmetry could not be determined.
 Excited State  12:      Triplet-?Sym    7.6696 eV  161.66 nm  f=0.0000  <S**2>=2.000
      18 -> 22        -0.49663
      19 -> 23         0.49664

 Excited state symmetry could not be determined.
 Excited State  13:      Singlet-?Sym    7.8737 eV  157.47 nm  f=0.0000  <S**2>=0.000
      18 -> 22        -0.49854
      19 -> 23         0.49854

 Excited state symmetry could not be determined.
 Excited State  14:      Singlet-?Sym    7.9802 eV  155.36 nm  f=0.0000  <S**2>=0.000
      18 -> 23        -0.49872
      19 -> 22         0.49872

 Excited state symmetry could not be determined.
 Excited State  15:      Singlet-?Sym    7.9802 eV  155.36 nm  f=0.0000  <S**2>=0.000
      18 -> 22         0.49872
      19 -> 23         0.49872

 Excited state symmetry could not be determined.
 Excited State  16:      Singlet-?Sym    7.9941 eV  155.10 nm  f=0.0056  <S**2>=0.000
      18 -> 23         0.49908
      19 -> 22         0.49908

 Excited State  17:      Singlet-E1G    8.0666 eV  153.70 nm  f=0.0000  <S**2>=0.000
      21 -> 24         0.70510

 Excited State  18:      Singlet-E1G    8.0666 eV  153.70 nm  f=0.0000  <S**2>=0.000
      20 -> 24         0.70510

 Excited state symmetry could not be determined.
 Excited State  19:      Singlet-?Sym    8.6678 eV  143.04 nm  f=1.1525  <S**2>=0.000
      20 -> 23         0.51406
      21 -> 22         0.51406
      20 <- 23        -0.12060
      21 <- 22        -0.12060

 Excited state symmetry could not be determined.
 Excited State  20:      Singlet-?Sym    8.6678 eV  143.04 nm  f=1.1525  <S**2>=0.000
      20 -> 22        -0.51406
      21 -> 23         0.51406
      20 <- 22         0.12060
      21 <- 23        -0.12060

 The electronic state is 1-A1G.
 Alpha  occ. eigenvalues --  -10.18770 -10.18744 -10.18744 -10.18688 -10.18688
 Alpha  occ. eigenvalues --  -10.18662  -0.84629  -0.73984  -0.73984  -0.59753
 Alpha  occ. eigenvalues --   -0.59753  -0.51860  -0.45940  -0.43808  -0.41729
 Alpha  occ. eigenvalues --   -0.41729  -0.35936  -0.34030  -0.34030  -0.24627
 Alpha  occ. eigenvalues --   -0.24627
 Alpha virt. eigenvalues --    0.00362   0.00362   0.09087   0.14479   0.14479
 Alpha virt. eigenvalues --    0.16392   0.18191   0.18191   0.19036   0.30267
 Alpha virt. eigenvalues --    0.30267   0.31911   0.31911   0.47490   0.52738

 Mulliken charges:
               1
     1  C   -0.128548
     2  C   -0.128548
     3  C   -0.128548
     4  C   -0.128548
     5  C   -0.128548
     6  C   -0.128548
     7  H    0.128548
     8  H    0.128548
     9  H    0.128548
    10  H    0.128548
    11  H    0.128548
    12  H    0.128548
 Sum of Mulliken charges =  -0.00000

 Dipole moment (field-independent basis, Debye):
    X=              0.0000    Y=              0.0000    Z=              0.0000  Tot=              0.0000
 Quadrupole moment (field-independent basis, Debye-Ang):
   XX=            -31.4009   YY=            -31.4009   ZZ=            -38.5992
   XY=              0.0000   XZ=              0.0000   YZ=              0.0000

 Normal termination of Gaussian 16 at Sun Apr 14 12:59:11 2024.
